LAMMPS data file via write_data, version 7 Feb 2024, timestep = 0, units = real

18 atoms
4 atom types
18 bonds
5 bond types
30 angles
7 angle types
39 dihedrals
5 dihedral types
5 impropers
1 improper types

-8.62490844323051 8.62490844323051 xlo xhi
-8.62490844323051 8.62490844323051 ylo yhi
-8.62490844323051 8.62490844323051 zlo zhi

Masses

1 3.016049
2 12.011
3 12.011
4 1.008

Pair Coeffs # lj/charmm/coul/charmm/omp

1 0.0208 2.60018 0.0208 2.60018
2 0.1078 3.39771 0.1078 3.39771
3 0.0988 3.31521 0.0988 3.31521
4 0.0161 2.62548 0.0161 2.62548

Bond Coeffs # harmonic/omp

1 375.92 1.097
2 232.52 1.538
3 250.32 1.516
4 378.57 1.398
5 395.72 1.086

Angle Coeffs # harmonic/omp

1 46.816 109.8
2 47.281 110.47
3 38.96 107.58
4 65.183 112.07
5 65.583 120.77
6 68.767 120.02
7 48.68 119.88

Dihedral Coeffs # fourier/omp

1 1 0 3 0
2 1 0 3 0
3 1 0 2 180
4 1 0 2 180
5 1 3 2 180

Improper Coeffs # cvff/omp

1 1.1 -1 2

Atoms # full

3 1 2 -0.06129413803979761 -2.510212398424801 -0.11833823595511049 -0.5315257465080293 0 0 0
4 1 1 0.02337148806916581 -2.410097312493024 -1.0693743246230827 -1.0697105320084002 0 0 0
7 1 3 -0.0619944628911677 1.969269706323719 -1.1058176608293644 -0.22730729791163112 0 0 0
15 1 4 0.06227866355843933 2.5356605980673974 -2.012104808147628 -0.42309931068989165 0 0 0
12 1 1 0.02337148806916581 -2.238499461661775 0.6952000085432539 -1.2160838809964714 0 0 0
13 1 1 0.02337148806916581 -3.5635803113799556 0.007860058530412713 -0.2508005200489555 0 0 0
8 1 3 -0.06224874165506165 2.5999418276880113 0.14582925723574658 -0.30704489378345906 0 0 0
9 1 3 -0.0619944628911677 1.8670855303315776 1.3161460652673438 -0.05547256403103781 0 0 0
16 1 4 0.06226889617623959 3.6533546514438586 0.20862269739121655 -0.5637315369949606 0 0 0
17 1 4 0.06227866355843933 2.353565946318897 2.2852885571483483 -0.11775352432136477 0 0 0
2 1 2 -0.03074408282510195 -1.6101122102477874 -0.10437535501016951 0.7206119080032292 0 0 0
5 1 3 -0.04829371759330676 -0.13221876268489186 -0.01721666156431733 0.36081298437963566 0 0 0
11 1 1 0.03130987497126975 -1.8018107354594899 -1.0089627366840983 1.3118629022537727 0 0 0
6 1 3 -0.05905558114127699 0.6070518244877845 -1.1872507883459846 0.10501515132959655 0 0 0
14 1 4 0.06256016536750107 0.12595385105533793 -2.159508935025612 0.16294543711138046 0 0 0
1 1 1 0.03130987497126975 -1.8944617065225804 0.7427839000744014 1.3579442330551366 0 0 0
18 1 4 0.06256016536750107 -0.05582305679495487 2.1461118170404716 0.4670560999761791 0 0 0
10 1 3 -0.05905558114127699 0.5049320199526802 1.2351071449541728 0.2762810911852726 0 0 0

Velocities

3 0 0 0
4 0 0 0
7 0 0 0
15 0 0 0
12 0 0 0
13 0 0 0
8 0 0 0
9 0 0 0
16 0 0 0
17 0 0 0
2 0 0 0
5 0 0 0
11 0 0 0
6 0 0 0
14 0 0 0
1 0 0 0
18 0 0 0
10 0 0 0

Bonds

1 1 3 4
2 1 3 12
3 1 3 13
4 4 7 8
5 5 7 15
6 4 8 9
7 5 8 16
8 4 9 10
9 5 9 17
10 2 2 3
11 3 2 5
12 1 2 11
13 4 5 6
14 4 6 7
15 5 6 14
16 1 1 2
17 4 10 5
18 5 10 18

Angles

1 1 2 3 4
2 1 2 3 12
3 1 2 3 13
4 3 4 3 12
5 3 4 3 13
6 3 12 3 13
7 6 6 7 8
8 7 6 7 15
9 7 8 7 15
10 6 7 8 9
11 7 7 8 16
12 7 9 8 16
13 6 8 9 10
14 7 8 9 17
15 7 10 9 17
16 1 1 2 3
17 2 1 2 5
18 3 1 2 11
19 4 3 2 5
20 1 3 2 11
21 2 5 2 11
22 5 2 5 6
23 5 2 5 10
24 6 6 5 10
25 6 5 6 7
26 7 5 6 14
27 7 7 6 14
28 6 9 10 5
29 7 9 10 18
30 7 5 10 18

Dihedrals

1 5 6 7 8 9
2 5 6 7 8 16
3 5 15 7 8 9
4 5 15 7 8 16
5 5 7 8 9 10
6 5 7 8 9 17
7 5 16 8 9 10
8 5 16 8 9 17
9 5 8 9 10 5
10 5 8 9 10 18
11 5 17 9 10 5
12 5 17 9 10 18
13 1 1 2 3 4
14 1 1 2 3 12
15 1 1 2 3 13
16 2 5 2 3 4
17 2 5 2 3 12
18 2 5 2 3 13
19 1 11 2 3 4
20 1 11 2 3 12
21 1 11 2 3 13
22 3 1 2 5 6
23 3 1 2 5 10
24 4 3 2 5 6
25 4 3 2 5 10
26 3 11 2 5 6
27 3 11 2 5 10
28 5 2 5 6 7
29 5 2 5 6 14
30 5 10 5 6 7
31 5 10 5 6 14
32 5 5 6 7 8
33 5 5 6 7 15
34 5 14 6 7 8
35 5 14 6 7 15
36 5 9 10 5 2
37 5 9 10 5 6
38 5 18 10 5 2
39 5 18 10 5 6

Impropers

1 1 8 7 9 16
2 1 9 8 10 17
3 1 10 9 5 18
4 1 6 5 7 14
5 1 7 6 8 15
