ITEM: TIMESTEP
0
ITEM: NUMBER OF ATOMS
18
ITEM: BOX BOUNDS ff ff ff
-8.6249084432305096e+00 8.6249084432305096e+00
-8.6249084432305096e+00 8.6249084432305096e+00
-8.6249084432305096e+00 8.6249084432305096e+00
ITEM: ATOMS id x y z xu yu zu vx vy vz fx fy fz
1 -1.89446 0.742784 1.35794 -1.89446 0.742784 1.35794 0 0 0 -0.00863573 -0.0261376 0.0224472
2 -1.61011 -0.104375 0.720612 -1.61011 -0.104375 0.720612 0 0 0 -0.163921 0.0732253 0.0759441
3 -2.51021 -0.118338 -0.531526 -2.51021 -0.118338 -0.531526 0 0 0 -0.0916807 -0.0295063 -0.00865379
4 -2.4101 -1.06937 -1.06971 -2.4101 -1.06937 -1.06971 0 0 0 0.0880684 0.0601966 -0.0481295
5 -0.132219 -0.0172167 0.360813 -0.132219 -0.0172167 0.360813 0 0 0 0.158065 0.141806 0.00648136
6 0.607052 -1.18725 0.105015 0.607052 -1.18725 0.105015 0 0 0 0.0125343 0.0161492 0.0221753
7 1.96927 -1.10582 -0.227307 1.96927 -1.10582 -0.227307 0 0 0 0.219118 -0.0896354 -0.0867987
8 2.59994 0.145829 -0.307045 2.59994 0.145829 -0.307045 0 0 0 -0.218308 -0.131465 0.0673392
9 1.86709 1.31615 -0.0554726 1.86709 1.31615 -0.0554726 0 0 0 0.00552265 -0.00544177 -0.0413958
10 0.504932 1.23511 0.276281 0.504932 1.23511 0.276281 0 0 0 -0.199109 0.130256 0.0825273
11 -1.80181 -1.00896 1.31186 -1.80181 -1.00896 1.31186 0 0 0 0.0287866 -0.0416454 -0.00144896
12 -2.2385 0.6952 -1.21608 -2.2385 0.6952 -1.21608 0 0 0 -0.0265698 0.0285602 0.00601979
13 -3.56358 0.00786006 -0.250801 -3.56358 0.00786006 -0.250801 0 0 0 0.159855 -0.103872 -0.0372323
14 0.125954 -2.15951 0.162945 0.125954 -2.15951 0.162945 0 0 0 -0.0760605 -0.053947 0.016795
15 2.53566 -2.0121 -0.423099 2.53566 -2.0121 -0.423099 0 0 0 -0.175234 0.13325 0.0398819
16 3.65335 0.208623 -0.563732 3.65335 0.208623 -0.563732 0 0 0 0.15802 -0.00292474 -0.0527131
17 2.35357 2.28529 -0.117754 2.35357 2.28529 -0.117754 0 0 0 0.0343279 0.0361909 -0.0423544
18 -0.0558231 2.14611 0.467056 -0.0558231 2.14611 0.467056 0 0 0 0.0952215 -0.135059 -0.0208844
