units real
atom_style full
boundary f f f

pair_style lj/charmm/coul/charmm 8.0 12.0
dielectric 1.000000
bond_style harmonic
angle_style harmonic
dihedral_style fourier
improper_style cvff
special_bonds amber
pair_modify mix arithmetic
neighbor 2.0 bin
neigh_modify delay 0 every 1 check yes
read_data radon_md_lmp.data
Reading data file ...
  orthogonal box = (-8.6249084 -8.6249084 -8.6249084) to (8.6249084 8.6249084 8.6249084)
  1 by 1 by 1 MPI processor grid
  reading atoms ...
  18 atoms
  scanning bonds ...
  3 = max bonds/atom
  scanning angles ...
  6 = max angles/atom
  scanning dihedrals ...
  15 = max dihedrals/atom
  scanning impropers ...
  1 = max impropers/atom
  reading bonds ...
  18 bonds
  reading angles ...
  30 angles
  reading dihedrals ...
  39 dihedrals
  reading impropers ...
  5 impropers
Finding 1-2 1-3 1-4 neighbors ...
  special bond factors lj:    0        0        0.5     
  special bond factors coul:  0        0        0.8333333333333334
     4 = max # of 1-2 neighbors
     7 = max # of 1-3 neighbors
    14 = max # of 1-4 neighbors
    16 = max # of special neighbors
  special bonds CPU = 0.000 seconds
  read_data CPU = 0.020 seconds

thermo_style custom step time temp press enthalpy etotal ke pe ebond eangle edihed eimp evdwl ecoul elong etail vol lx ly lz density pxx pyy pzz pxy pxz pyz
thermo_modify flush yes
thermo 1000

dump dump0 all custom 1000 radon_md.dump id type mol x y z ix iy iz vx vy vz
restart 10000 radon_md_1.rst radon_md_2.rst

undump dump0
min_style cg
minimize 0.000100 0.000001 10000 100000
Generated 6 of 6 mixed pair_coeff terms from arithmetic mixing rule
Last active /omp style is improper_style cvff/omp
Neighbor list info ...
  update: every = 1 steps, delay = 0 steps, check = yes
  max neighbors/atom: 2000, page size: 100000
  master list distance cutoff = 14
  ghost atom cutoff = 14
  binsize = 7, bins = 3 3 3
  1 neighbor lists, perpetual/occasional/extra = 1 0 0
  (1) pair lj/charmm/coul/charmm/omp, perpetual
      attributes: half, newton on, omp
      pair build: half/bin/newton/omp
      stencil: half/bin/3d
      bin: standard
Per MPI rank memory allocation (min/avg/max) = 14.92 | 14.92 | 14.92 Mbytes
   Step          Time           Temp          Press         Enthalpy        TotEng         KinEng         PotEng         E_bond        E_angle        E_dihed        E_impro         E_vdwl         E_coul         E_long         E_tail         Volume           Lx             Ly             Lz          Density          Pxx            Pyy            Pzz            Pxy            Pxz            Pyz      
         0   0              0              765.81788      66.666198      9.3397729      0              9.3397729      1.7902617      3.5441307      7.6553465e-08  1.8775738e-09  4.3048421     -0.29946167     0              0              5132.7897      17.249817      17.249817      17.249817      0.037595212    1793.5961      135.50196      368.35556      28.747155     -135.38334     -2.7043207    
       109   109            0             -1.3259318      2.0558048      2.1550594      0              2.1550594      0.14379458     0.1156689      0.00062754002  1.2510555e-06  2.1781939     -0.28322677     0              0              5132.7897      17.249817      17.249817      17.249817      0.037595212   -4.0691818     -2.3270965      2.4184828      2.4490416     -1.4960681     -1.0115356    
Loop time of 0.0108313 on 1 procs for 109 steps with 18 atoms

20.6% CPU use with 1 MPI tasks x 1 OpenMP threads

Minimization stats:
  Stopping criterion = energy tolerance
  Energy initial, next-to-last, final = 
      9.33977285549421   2.15519802140238   2.15505939793227
  Force two-norm initial, final = 87.132535 0.68357345
  Force max component initial, final = 37.877941 0.2191182
  Final line search alpha, max atom move = 0.047890876 0.010493762
  Iterations, force evaluations = 109 222

MPI task timing breakdown:
Section |  min time  |  avg time  |  max time  |%varavg| %total
---------------------------------------------------------------
Pair    | 0.00065076 | 0.00065076 | 0.00065076 |   0.0 |  6.01
Bond    | 0.0011743  | 0.0011743  | 0.0011743  |   0.0 | 10.84
Neigh   | 9.567e-06  | 9.567e-06  | 9.567e-06  |   0.0 |  0.09
Comm    | 1.9396e-05 | 1.9396e-05 | 1.9396e-05 |   0.0 |  0.18
Output  | 0          | 0          | 0          |   0.0 |  0.00
Modify  | 4.7695e-05 | 4.7695e-05 | 4.7695e-05 |   0.0 |  0.44
Other   |            | 0.00893    |            |       | 82.44

Nlocal:             18 ave          18 max          18 min
Histogram: 1 0 0 0 0 0 0 0 0 0
Nghost:              0 ave           0 max           0 min
Histogram: 1 0 0 0 0 0 0 0 0 0
Neighs:            105 ave         105 max         105 min
Histogram: 1 0 0 0 0 0 0 0 0 0

Total # of neighbors = 105
Ave neighs/atom = 5.8333333
Ave special neighs/atom = 9.3333333
Neighbor list builds = 1
Dangerous builds = 0
reset_timestep 0
dump dump0 all custom 1000 radon_md.dump id type mol x y z ix iy iz vx vy vz

write_dump all custom radon_md_last.dump id x y z xu yu zu vx vy vz fx fy fz modify sort id
write_data radon_md_last.data
System init for write_data ...
Generated 6 of 6 mixed pair_coeff terms from arithmetic mixing rule
Last active /omp style is improper_style cvff/omp
quit
