Generated by RadonPy

18 atoms
4 atom types
18 bonds
5 bond types
30 angles
7 angle types
39 dihedrals
5 dihedral types
5 impropers
1 improper types

-8.6249084432305096e+00 8.6249084432305096e+00 xlo xhi
-8.6249084432305096e+00 8.6249084432305096e+00 ylo yhi
-8.6249084432305096e+00 8.6249084432305096e+00 zlo zhi

Masses

    1	3.016049	# hc,0
    2	12.011000	# c3,0
    3	12.011000	# ca,0
    4	1.008000	# ha,0

Pair Coeffs

    1	0.020800	2.600177	# hc,0
    2	0.107800	3.397710	# c3,0
    3	0.098800	3.315212	# ca,0
    4	0.016100	2.625479	# ha,0

Bond Coeffs

    1	375.920000	1.097000	# c3,hc
    2	232.520000	1.538000	# c3,c3
    3	250.320000	1.516000	# c3,ca
    4	378.570000	1.398000	# ca,ca
    5	395.720000	1.086000	# ca,ha

Angle Coeffs

    1	46.816000	109.800000	# c3,c3,hc
    2	47.281000	110.470000	# ca,c3,hc
    3	38.960000	107.580000	# hc,c3,hc
    4	65.183000	112.070000	# c3,c3,ca
    5	65.583000	120.770000	# c3,ca,ca
    6	68.767000	120.020000	# ca,ca,ca
    7	48.680000	119.880000	# ca,ca,ha

Dihedral Coeffs

    1	1	0	3	0	# hc,c3,c3,hc
    2	1	0	3	0	# X,c3,c3,X
    3	1	0	2	180	# hc,c3,ca,ca
    4	1	0	2	180	# c3,c3,ca,ca
    5	1	3	2	180	# X,ca,ca,X

Improper Coeffs

    1	1.100000	-1	2	# ca,X,X,ha

Atoms

    1	1	1	 3.1309874971269754e-02	-1.8257945704340812e+00	 7.3682892196870942e-01	 1.3611459669879107e+00
    2	1	2	-3.0744082825101951e-02	-1.5632328865039977e+00	-1.4898214169597238e-01	 7.4826812547237598e-01
    3	1	2	-6.1294138039797615e-02	-2.4052087547883700e+00	-9.9794101672838795e-02	-5.0643554055207152e-01
    4	1	1	 2.3371488069165811e-02	-2.5914027070076631e+00	-1.1015952487264538e+00	-9.3139485838916258e-01
    5	1	3	-4.8293717593306758e-02	-1.2359629835414415e-01	-1.1257734314974391e-01	 3.6558998249298763e-01
    6	1	3	-5.9055581141276993e-02	 6.1777364546888924e-01	-1.2585036620445234e+00	 1.1689954382484813e-01
    7	1	3	-6.1994462891167702e-02	 1.9475605157886846e+00	-1.0828188872651885e+00	-2.3028917446303654e-01
    8	1	3	-6.2248741655061647e-02	 2.4888075034591335e+00	 1.7758805967020844e-01	-3.1890805365411135e-01
    9	1	3	-6.1994462891167702e-02	 1.7611328873325349e+00	 1.3252594983914798e+00	-7.3797503290737698e-02
   10	1	3	-5.9055581141276993e-02	 4.4158978067225640e-01	 1.1638485291300280e+00	 2.7128873487386163e-01
   11	1	1	 3.1309874971269754e-02	-1.8254469098038091e+00	-1.1007355604656437e+00	 1.2576876889920470e+00
   12	1	1	 2.3371488069165811e-02	-1.8346114233209248e+00	 5.4149342811556112e-01	-1.2344188906738607e+00
   13	1	1	 2.3371488069165811e-02	-3.3488336133904015e+00	 4.7991380752091950e-01	-3.2953002726961433e-01
   14	1	4	 6.2560165367501072e-02	 1.4727678177383285e-01	-2.2250520067924815e+00	 1.9967677758637098e-01
   15	1	4	 6.2278663558439334e-02	 2.5702398365654879e+00	-1.9456517269689431e+00	-4.3476277596171953e-01
   16	1	4	 6.2268896176239590e-02	 3.5274026476069715e+00	 2.8290231794819704e-01	-5.9146735456806798e-01
   17	1	4	 6.2278663558439334e-02	 2.1682759991065441e+00	 2.3136504086229275e+00	-1.3869766524531674e-01
   18	1	4	 6.2560165367501072e-02	-1.5193243417094410e-01	 2.0542257074137580e+00	 4.6914502383729711e-01

Bonds

    1	1	1	2
    2	2	2	3
    3	1	3	4
    4	3	2	5
    5	4	5	6
    6	4	6	7
    7	4	7	8
    8	4	8	9
    9	4	9	10
   10	4	10	5
   11	1	2	11
   12	1	3	12
   13	1	3	13
   14	5	6	14
   15	5	7	15
   16	5	8	16
   17	5	9	17
   18	5	10	18

Angles

    1	1	1	2	3
    2	2	1	2	5
    3	3	1	2	11
    4	4	3	2	5
    5	1	3	2	11
    6	2	5	2	11
    7	1	2	3	4
    8	1	2	3	12
    9	1	2	3	13
   10	3	4	3	12
   11	3	4	3	13
   12	3	12	3	13
   13	5	2	5	6
   14	5	2	5	10
   15	6	6	5	10
   16	6	5	6	7
   17	7	5	6	14
   18	7	7	6	14
   19	6	6	7	8
   20	7	6	7	15
   21	7	8	7	15
   22	6	7	8	9
   23	7	7	8	16
   24	7	9	8	16
   25	6	8	9	10
   26	7	8	9	17
   27	7	10	9	17
   28	6	9	10	5
   29	7	9	10	18
   30	7	5	10	18

Dihedrals

    1	1	1	2	3	4
    2	1	1	2	3	12
    3	1	1	2	3	13
    4	2	5	2	3	4
    5	2	5	2	3	12
    6	2	5	2	3	13
    7	1	11	2	3	4
    8	1	11	2	3	12
    9	1	11	2	3	13
   10	3	1	2	5	6
   11	3	1	2	5	10
   12	4	3	2	5	6
   13	4	3	2	5	10
   14	3	11	2	5	6
   15	3	11	2	5	10
   16	5	2	5	6	7
   17	5	2	5	6	14
   18	5	10	5	6	7
   19	5	10	5	6	14
   20	5	5	6	7	8
   21	5	5	6	7	15
   22	5	14	6	7	8
   23	5	14	6	7	15
   24	5	6	7	8	9
   25	5	6	7	8	16
   26	5	15	7	8	9
   27	5	15	7	8	16
   28	5	7	8	9	10
   29	5	7	8	9	17
   30	5	16	8	9	10
   31	5	16	8	9	17
   32	5	8	9	10	5
   33	5	8	9	10	18
   34	5	17	9	10	5
   35	5	17	9	10	18
   36	5	9	10	5	2
   37	5	9	10	5	6
   38	5	18	10	5	2
   39	5	18	10	5	6

Impropers

    1	1	6	5	7	14
    2	1	7	6	8	15
    3	1	8	7	9	16
    4	1	9	8	10	17
    5	1	10	9	5	18
